LAMMPS data file via write_data, version 10 Aug 2015, timestep = 0

15 atoms
5 atom types
14 bonds
4 bond types
25 angles
7 angle types
24 dihedrals
4 dihedral types

-1.5000000000000000e+01 1.5000000000000000e+01 xlo xhi
-1.5000000000000000e+01 1.5000000000000000e+01 ylo yhi
-1.5000000000000000e+01 1.5000000000000000e+01 zlo zhi

Masses

1 12.011
2 18.998
3 32.066
4 14
5 15.999

Pair Coeffs # lj/cut/coul/long

1 0.019794 3.15
2 0.015896 2.655
3 0.074981 4.0825
4 0.050987 3.25
5 0.062985 3.4632

Bond Coeffs # harmonic

1 441.922 1.323
2 233.031 1.818
3 374.88 1.57
4 637.07 1.437

Angle Coeffs # harmonic

1 93.3317 107.1
2 82.935 111.7
3 91.3002 103.5
4 103.967 102.6
5 94.2878 113.6
6 115.798 118.5
7 80.1864 125.6

Dihedral Coeffs # opls

1 0 0 0.315966 0
2 0 0 0.346797 0
3 7.83293 -2.49044 -0.763623 0
4 0 0 -0.003585 0

Atoms # full

3 1 2 -1.6000000000000000e-01 2.3516714329999999e+00 -5.0197816599999996e+00 -6.6941053969999997e-01 0 0 0
4 1 2 -1.6000000000000000e-01 2.6542623440000002e+00 -5.8004538410000004e+00 -2.5780057959999998e+00 0 0 0
6 1 4 -6.6000000000000003e-01 -4.8146200810000001e-01 -5.6536245750000003e+00 -2.2967876779999998e+00 0 0 0
9 1 3 1.0200000000000000e+00 -1.5544031750000000e+00 -6.1847207620000004e+00 -1.2787928870000000e+00 0 0 0
10 1 5 -5.3000000000000003e-01 -1.0773946750000001e+00 -6.5123500349999999e+00 1.1266697550000000e-02 0 0 0
11 1 5 -5.3000000000000003e-01 -2.7844879460000000e+00 -5.4747364139999997e+00 -1.2464022539999999e+00 0 0 0
12 1 1 3.4999999999999998e-01 -1.8915429060000000e+00 -7.8513368970000004e+00 -1.9296647910000000e+00 0 0 0
13 1 2 -1.6000000000000000e-01 -8.1994602839999997e-01 -8.5796429330000006e+00 -2.2142007100000001e+00 0 0 0
14 1 2 -1.6000000000000000e-01 -2.7085734669999999e+00 -8.4606099710000002e+00 -1.0246716430000000e+00 0 0 0
15 1 2 -1.6000000000000000e-01 -2.6529151970000000e+00 -7.7624664929999998e+00 -3.0293243820000000e+00 0 0 0
1 1 1 3.4999999999999998e-01 2.1600560799999999e+00 -4.6978879219999996e+00 -1.9718707110000000e+00 0 0 0
2 1 2 -1.6000000000000000e-01 3.0044191750000002e+00 -3.7465266719999999e+00 -2.2662123109999999e+00 0 0 0
5 1 3 1.0200000000000000e+00 3.0970184200000000e-01 -4.2723188309999998e+00 -2.3178590790000002e+00 0 0 0
7 1 5 -5.3000000000000003e-01 3.5153822990000000e-01 -3.5763835570000002e+00 -3.6184219909999999e+00 0 0 0
8 1 5 -5.3000000000000003e-01 -8.3034741640000007e-02 -3.4497098190000002e+00 -1.2166719880000001e+00 0 0 0

Bonds

1 1 3 1
2 1 4 1
3 3 6 5
4 3 9 6
5 4 10 9
6 4 11 9
7 2 12 9
8 1 13 12
9 1 14 12
10 1 15 12
11 1 2 1
12 2 5 1
13 4 7 5
14 4 8 5

Angles

1 7 5 6 9
2 5 6 9 10
3 5 6 9 11
4 3 6 9 12
5 6 10 9 11
6 4 10 9 12
7 4 11 9 12
8 2 9 12 13
9 2 9 12 14
10 2 9 12 15
11 1 13 12 14
12 1 13 12 15
13 1 14 12 15
14 1 2 1 3
15 1 2 1 4
16 2 2 1 5
17 1 3 1 4
18 2 3 1 5
19 2 4 1 5
20 3 1 5 6
21 4 1 5 7
22 4 1 5 8
23 5 6 5 7
24 5 6 5 8
25 6 7 5 8

Dihedrals

1 3 9 6 5 1
2 4 9 6 5 7
3 4 9 6 5 8
4 4 10 9 6 5
5 4 11 9 6 5
6 3 12 9 6 5
7 1 13 12 9 6
8 2 13 12 9 10
9 2 13 12 9 11
10 1 14 12 9 6
11 2 14 12 9 10
12 2 14 12 9 11
13 1 15 12 9 6
14 2 15 12 9 10
15 2 15 12 9 11
16 1 6 5 1 2
17 1 6 5 1 3
18 1 6 5 1 4
19 2 7 5 1 2
20 2 7 5 1 3
21 2 7 5 1 4
22 2 8 5 1 2
23 2 8 5 1 3
24 2 8 5 1 4
